<?xml version="1.0" encoding="UTF-8"?>

<!-- generated on 2024-05-27 21:23:13 by Eclipse SUMO sumo Version 1.19.0
<configuration xmlns:xsi="http://www.w3.org/2001/XMLSchema-instance" xsi:noNamespaceSchemaLocation="http://sumo.dlr.de/xsd/sumoConfiguration.xsd">

    <input>
        <net-file value="maps/crosnew.net.xml"/>
        <route-files value="maps/27-17-18-46.rou.xml"/>
    </input>

    <output>
        <emission-output value="outputs/emissions.xml"/>
        <queue-output value="outputs/queue.xml"/>
        <tripinfo-output value="maps/tripinfo.xml"/>
    </output>

    <time>
        <begin value="0"/>
    </time>

    <report>
        <verbose value="true"/>
        <no-step-log value="true"/>
    </report>

    <traci_server>
        <remote-port value="57619"/>
    </traci_server>

</configuration>
-->

<queue-export xmlns:xsi="http://www.w3.org/2001/XMLSchema-instance" xsi:noNamespaceSchemaLocation="http://sumo.dlr.de/xsd/queue_file.xsd">
</queue-export>
