<?xml version="1.0" encoding="UTF-8"?>

<!-- generated on 2024-05-27 17:53:49 by Eclipse SUMO GUI Version 1.19.0
<configuration xmlns:xsi="http://www.w3.org/2001/XMLSchema-instance" xsi:noNamespaceSchemaLocation="http://sumo.dlr.de/xsd/sumoConfiguration.xsd">

    <input>
        <net-file value="C:\Users\vky\PycharmProjects\TrafficAgent\trafficsurveillence\maps/crosnew.net.xml"/>
        <route-files value="C:\Users\vky\PycharmProjects\TrafficAgent\trafficsurveillence\maps/27-17-18-46.rou.xml"/>
    </input>

    <output>
        <emission-output value="C:\Users\vky\PycharmProjects\TrafficAgent\trafficsurveillence\outputs/emissions2.xml"/>
        <queue-output value="C:\Users\vky\PycharmProjects\TrafficAgent\trafficsurveillence\outputs/queue.xml"/>
        <tripinfo-output value="C:\Users\vky\PycharmProjects\TrafficAgent\trafficsurveillence\outputs/tripinfosreport.xml"/>
    </output>

    <time>
        <begin value="0"/>
    </time>

    <report>
        <verbose value="true"/>
        <no-step-log value="true"/>
    </report>

</configuration>
-->

<tripinfos xmlns:xsi="http://www.w3.org/2001/XMLSchema-instance" xsi:noNamespaceSchemaLocation="http://sumo.dlr.de/xsd/tripinfo_file.xsd">
    <tripinfo id="EW_0" depart="0.00" departLane="EW1_0" departPos="5.10" departSpeed="0.00" departDelay="0.00" arrival="48.00" arrivalLane="SN2_0" arrivalPos="279.75" arrivalSpeed="14.41" duration="48.00" routeLength="594.28" waitingTime="0.00" waitingCount="0" stopTime="0.00" timeLoss="6.69" rerouteNo="0" devices="tripinfo_EW_0 emissions_EW_0" vType="typeCar" speedFactor="1.06" vaporized="">
        <emissions CO_abs="2109.850692" CO2_abs="156441.626808" HC_abs="13.110280" PMx_abs="2.728005" NOx_abs="62.969028" fuel_abs="49897.561909" electricity_abs="0"/>
    </tripinfo>
    <tripinfo id="SN_19" depart="0.00" departLane="SN1_0" departPos="5.10" departSpeed="0.00" departDelay="0.00" arrival="53.00" arrivalLane="EW2_1" arrivalPos="267.19" arrivalSpeed="14.82" duration="53.00" routeLength="569.46" waitingTime="5.00" waitingCount="1" stopTime="0.00" timeLoss="13.79" rerouteNo="0" devices="tripinfo_SN_19 emissions_SN_19" vType="typeCar" speedFactor="1.08" vaporized="">
        <emissions CO_abs="3066.177281" CO2_abs="185704.221713" HC_abs="18.139021" PMx_abs="3.164751" NOx_abs="73.862355" fuel_abs="59231.440015" electricity_abs="0"/>
    </tripinfo>
    <tripinfo id="SN_20" depart="4.00" departLane="SN1_0" departPos="5.10" departSpeed="0.00" departDelay="0.00" arrival="55.00" arrivalLane="EW2_1" arrivalPos="267.19" arrivalSpeed="14.23" duration="51.00" routeLength="569.46" waitingTime="0.00" waitingCount="0" stopTime="0.00" timeLoss="10.59" rerouteNo="0" devices="tripinfo_SN_20 emissions_SN_20" vType="typeCar" speedFactor="1.05" vaporized="">
        <emissions CO_abs="2402.535414" CO2_abs="165557.336496" HC_abs="14.502487" PMx_abs="2.654504" NOx_abs="64.774427" fuel_abs="52805.429288" electricity_abs="0"/>
    </tripinfo>
    <tripinfo id="SN_21" depart="8.00" departLane="SN1_0" departPos="5.10" departSpeed="0.00" departDelay="0.00" arrival="58.00" arrivalLane="WE2_0" arrivalPos="310.57" arrivalSpeed="13.87" duration="50.00" routeLength="602.52" waitingTime="0.00" waitingCount="0" stopTime="0.00" timeLoss="7.46" rerouteNo="0" devices="tripinfo_SN_21 emissions_SN_21" vType="typeCar" speedFactor="1.05" vaporized="">
        <emissions CO_abs="1853.912782" CO2_abs="152912.767038" HC_abs="11.689507" PMx_abs="2.377984" NOx_abs="59.230475" fuel_abs="48772.232172" electricity_abs="0"/>
    </tripinfo>
    <tripinfo id="SN_22" depart="12.00" departLane="SN1_0" departPos="5.10" departSpeed="0.00" departDelay="0.00" arrival="63.00" arrivalLane="EW2_0" arrivalPos="267.19" arrivalSpeed="12.81" duration="51.00" routeLength="569.46" waitingTime="0.00" waitingCount="0" stopTime="0.00" timeLoss="6.37" rerouteNo="0" devices="tripinfo_SN_22 emissions_SN_22" vType="typeCar" speedFactor="0.94" vaporized="">
        <emissions CO_abs="1794.819411" CO2_abs="133461.023295" HC_abs="11.200296" PMx_abs="2.094469" NOx_abs="52.462353" fuel_abs="42568.094368" electricity_abs="0"/>
    </tripinfo>
    <tripinfo id="SN_47" depart="23.00" departLane="SN1_0" departPos="5.10" departSpeed="0.00" departDelay="0.00" arrival="65.00" arrivalLane="EW2_1" arrivalPos="267.19" arrivalSpeed="14.95" duration="42.00" routeLength="569.46" waitingTime="0.00" waitingCount="0" stopTime="0.00" timeLoss="5.72" rerouteNo="0" devices="tripinfo_SN_47 emissions_SN_47" vType="typeCar" speedFactor="1.15" vaporized="">
        <emissions CO_abs="1749.875833" CO2_abs="143541.605279" HC_abs="11.174053" PMx_abs="2.397707" NOx_abs="56.180499" fuel_abs="45783.108651" electricity_abs="0"/>
    </tripinfo>
    <tripinfo id="SN_23" depart="16.00" departLane="SN1_0" departPos="5.10" departSpeed="0.00" departDelay="0.00" arrival="66.00" arrivalLane="WE2_0" arrivalPos="310.57" arrivalSpeed="13.87" duration="50.00" routeLength="602.52" waitingTime="0.00" waitingCount="0" stopTime="0.00" timeLoss="6.15" rerouteNo="0" devices="tripinfo_SN_23 emissions_SN_23" vType="typeCar" speedFactor="1.01" vaporized="">
        <emissions CO_abs="1969.463990" CO2_abs="160799.688757" HC_abs="12.515400" PMx_abs="2.601053" NOx_abs="63.239792" fuel_abs="51287.699167" electricity_abs="0"/>
    </tripinfo>
    <tripinfo id="SN_46" depart="20.00" departLane="SN1_0" departPos="5.10" departSpeed="0.00" departDelay="0.00" arrival="70.00" arrivalLane="SN2_0" arrivalPos="279.75" arrivalSpeed="12.33" duration="50.00" routeLength="583.47" waitingTime="0.00" waitingCount="0" stopTime="0.00" timeLoss="5.10" rerouteNo="0" devices="tripinfo_SN_46 emissions_SN_46" vType="typeCar" speedFactor="0.95" vaporized="">
        <emissions CO_abs="1520.518497" CO2_abs="130157.352466" HC_abs="9.730401" PMx_abs="1.880828" NOx_abs="49.768338" fuel_abs="41514.418319" electricity_abs="0"/>
    </tripinfo>
    <tripinfo id="SN_48" depart="26.00" departLane="SN1_0" departPos="5.10" departSpeed="0.00" departDelay="0.00" arrival="72.00" arrivalLane="SN2_0" arrivalPos="279.75" arrivalSpeed="13.21" duration="46.00" routeLength="583.47" waitingTime="0.00" waitingCount="0" stopTime="0.00" timeLoss="4.59" rerouteNo="0" devices="tripinfo_SN_48 emissions_SN_48" vType="typeCar" speedFactor="1.02" vaporized="">
        <emissions CO_abs="1327.430337" CO2_abs="131582.045670" HC_abs="8.636060" PMx_abs="1.781046" NOx_abs="48.897188" fuel_abs="41968.834199" electricity_abs="0"/>
    </tripinfo>
    <tripinfo id="WE_10" depart="10.00" departLane="WE1_0" departPos="5.10" departSpeed="0.00" departDelay="0.00" arrival="85.00" arrivalLane="NS2_0" arrivalPos="287.99" arrivalSpeed="12.95" duration="75.00" routeLength="559.17" waitingTime="25.00" waitingCount="1" stopTime="0.00" timeLoss="33.01" rerouteNo="0" devices="tripinfo_WE_10 emissions_WE_10" vType="typeCar" speedFactor="0.99" vaporized="">
        <emissions CO_abs="6357.532041" CO2_abs="224096.825983" HC_abs="33.940814" PMx_abs="4.180669" NOx_abs="92.272244" fuel_abs="71478.207117" electricity_abs="0"/>
    </tripinfo>
    <tripinfo id="WE_8" depart="0.00" departLane="WE1_0" departPos="5.10" departSpeed="0.00" departDelay="0.00" arrival="87.00" arrivalLane="SN2_0" arrivalPos="279.75" arrivalSpeed="12.91" duration="87.00" routeLength="561.24" waitingTime="33.00" waitingCount="1" stopTime="0.00" timeLoss="42.78" rerouteNo="0" devices="tripinfo_WE_8 emissions_WE_8" vType="typeCar" speedFactor="0.94" vaporized="">
        <emissions CO_abs="7941.180572" CO2_abs="246756.002022" HC_abs="41.737493" PMx_abs="4.740985" NOx_abs="103.021010" fuel_abs="78706.038841" electricity_abs="0"/>
    </tripinfo>
    <tripinfo id="WE_11" depart="15.00" departLane="WE1_0" departPos="5.10" departSpeed="0.00" departDelay="0.00" arrival="87.00" arrivalLane="NS2_0" arrivalPos="287.99" arrivalSpeed="13.57" duration="72.00" routeLength="559.17" waitingTime="21.00" waitingCount="1" stopTime="0.00" timeLoss="31.21" rerouteNo="0" devices="tripinfo_WE_11 emissions_WE_11" vType="typeCar" speedFactor="1.02" vaporized="">
        <emissions CO_abs="6022.788826" CO2_abs="213206.305461" HC_abs="32.335711" PMx_abs="4.170479" NOx_abs="89.460989" fuel_abs="68004.308385" electricity_abs="0"/>
    </tripinfo>
    <tripinfo id="WE_9" depart="5.00" departLane="WE1_0" departPos="5.10" departSpeed="0.00" departDelay="0.00" arrival="89.00" arrivalLane="SN2_0" arrivalPos="279.75" arrivalSpeed="12.05" duration="84.00" routeLength="561.24" waitingTime="31.00" waitingCount="1" stopTime="0.00" timeLoss="40.19" rerouteNo="0" devices="tripinfo_WE_9 emissions_WE_9" vType="typeCar" speedFactor="0.94" vaporized="">
        <emissions CO_abs="7405.529202" CO2_abs="234411.986433" HC_abs="39.053013" PMx_abs="4.476800" NOx_abs="97.665916" fuel_abs="74768.701996" electricity_abs="0"/>
    </tripinfo>
    <tripinfo id="WE_31" depart="23.00" departLane="WE1_0" departPos="5.10" departSpeed="0.00" departDelay="1.00" arrival="89.00" arrivalLane="WE2_1" arrivalPos="310.57" arrivalSpeed="15.22" duration="66.00" routeLength="593.54" waitingTime="16.00" waitingCount="1" stopTime="0.00" timeLoss="27.55" rerouteNo="0" devices="tripinfo_WE_31 emissions_WE_31" vType="typeCar" speedFactor="1.13" vaporized="">
        <emissions CO_abs="5319.538672" CO2_abs="227024.639953" HC_abs="29.147211" PMx_abs="4.145737" NOx_abs="92.227275" fuel_abs="72411.451219" electricity_abs="0"/>
    </tripinfo>
    <tripinfo id="WE_32" depart="26.00" departLane="WE1_0" departPos="5.10" departSpeed="0.00" departDelay="1.00" arrival="93.00" arrivalLane="WE2_1" arrivalPos="310.57" arrivalSpeed="13.14" duration="67.00" routeLength="593.54" waitingTime="12.00" waitingCount="1" stopTime="0.00" timeLoss="24.19" rerouteNo="0" devices="tripinfo_WE_32 emissions_WE_32" vType="typeCar" speedFactor="1.01" vaporized="">
        <emissions CO_abs="4665.971914" CO2_abs="203366.812937" HC_abs="25.667211" PMx_abs="3.544003" NOx_abs="81.885276" fuel_abs="64865.716874" electricity_abs="0"/>
    </tripinfo>
    <tripinfo id="WE_33" depart="29.00" departLane="WE1_0" departPos="5.10" departSpeed="0.00" departDelay="2.00" arrival="93.00" arrivalLane="SN2_1" arrivalPos="279.75" arrivalSpeed="13.13" duration="64.00" routeLength="561.24" waitingTime="7.00" waitingCount="1" stopTime="0.00" timeLoss="20.84" rerouteNo="0" devices="tripinfo_WE_33 emissions_WE_33" vType="typeCar" speedFactor="0.97" vaporized="">
        <emissions CO_abs="4080.104907" CO2_abs="181694.456931" HC_abs="22.697397" PMx_abs="3.238124" NOx_abs="74.208681" fuel_abs="57952.973541" electricity_abs="0"/>
    </tripinfo>
    <tripinfo id="WE_30" depart="20.00" departLane="WE1_0" departPos="5.10" departSpeed="0.00" departDelay="0.00" arrival="94.00" arrivalLane="WE2_0" arrivalPos="310.57" arrivalSpeed="11.94" duration="74.00" routeLength="593.54" waitingTime="14.00" waitingCount="1" stopTime="0.00" timeLoss="24.88" rerouteNo="0" devices="tripinfo_WE_30 emissions_WE_30" vType="typeCar" speedFactor="0.87" vaporized="">
        <emissions CO_abs="4865.567501" CO2_abs="200530.414813" HC_abs="26.741208" PMx_abs="3.420295" NOx_abs="81.041304" fuel_abs="63961.270804" electricity_abs="0"/>
    </tripinfo>
    <tripinfo id="WE_35" depart="35.00" departLane="WE1_0" departPos="5.10" departSpeed="0.00" departDelay="3.00" arrival="94.00" arrivalLane="NS2_1" arrivalPos="287.99" arrivalSpeed="14.35" duration="59.00" routeLength="559.17" waitingTime="4.00" waitingCount="1" stopTime="0.00" timeLoss="21.40" rerouteNo="0" devices="tripinfo_WE_35 emissions_WE_35" vType="typeCar" speedFactor="1.09" vaporized="">
        <emissions CO_abs="3744.137899" CO2_abs="189704.718131" HC_abs="21.276711" PMx_abs="3.333311" NOx_abs="76.901770" fuel_abs="60507.635178" electricity_abs="0"/>
    </tripinfo>
    <tripinfo id="WE_36" depart="38.00" departLane="WE1_0" departPos="5.10" departSpeed="0.00" departDelay="3.00" arrival="94.00" arrivalLane="SN2_1" arrivalPos="279.75" arrivalSpeed="13.19" duration="56.00" routeLength="561.24" waitingTime="1.00" waitingCount="1" stopTime="0.00" timeLoss="14.55" rerouteNo="0" devices="tripinfo_WE_36 emissions_WE_36" vType="typeCar" speedFactor="1.00" vaporized="">
        <emissions CO_abs="3161.681503" CO2_abs="170558.058051" HC_abs="18.290599" PMx_abs="2.954470" NOx_abs="69.074672" fuel_abs="54400.600522" electricity_abs="0"/>
    </tripinfo>
    <tripinfo id="WE_34" depart="32.00" departLane="WE1_0" departPos="5.10" departSpeed="0.00" departDelay="2.00" arrival="96.00" arrivalLane="NS2_0" arrivalPos="287.99" arrivalSpeed="12.00" duration="64.00" routeLength="559.17" waitingTime="6.00" waitingCount="1" stopTime="0.00" timeLoss="18.69" rerouteNo="0" devices="tripinfo_WE_34 emissions_WE_34" vType="typeCar" speedFactor="0.90" vaporized="">
        <emissions CO_abs="3892.011396" CO2_abs="186388.711209" HC_abs="21.998105" PMx_abs="3.158946" NOx_abs="75.330103" fuel_abs="59450.234646" electricity_abs="0"/>
    </tripinfo>
    <tripinfo id="WE_59" depart="50.00" departLane="WE1_0" departPos="5.10" departSpeed="0.00" departDelay="5.00" arrival="96.00" arrivalLane="SN2_1" arrivalPos="279.75" arrivalSpeed="15.77" duration="46.00" routeLength="561.24" waitingTime="0.00" waitingCount="0" stopTime="0.00" timeLoss="9.46" rerouteNo="0" devices="tripinfo_WE_59 emissions_WE_59" vType="typeCar" speedFactor="1.14" vaporized="">
        <emissions CO_abs="2216.268509" CO2_abs="159480.871781" HC_abs="13.712075" PMx_abs="2.794848" NOx_abs="64.176048" fuel_abs="50866.978388" electricity_abs="0"/>
    </tripinfo>
    <tripinfo id="WE_57" depart="44.00" departLane="WE1_0" departPos="5.10" departSpeed="0.00" departDelay="4.00" arrival="100.00" arrivalLane="NS2_1" arrivalPos="287.99" arrivalSpeed="14.93" duration="56.00" routeLength="559.17" waitingTime="0.00" waitingCount="0" stopTime="0.00" timeLoss="17.57" rerouteNo="0" devices="tripinfo_WE_57 emissions_WE_57" vType="typeCar" speedFactor="1.10" vaporized="">
        <emissions CO_abs="3161.606484" CO2_abs="180815.624541" HC_abs="18.363192" PMx_abs="3.186057" NOx_abs="73.423662" fuel_abs="57672.095893" electricity_abs="0"/>
    </tripinfo>
    <tripinfo id="WE_37" depart="41.00" departLane="WE1_0" departPos="5.10" departSpeed="0.00" departDelay="4.00" arrival="103.00" arrivalLane="NS2_0" arrivalPos="287.99" arrivalSpeed="11.28" duration="62.00" routeLength="559.17" waitingTime="0.00" waitingCount="0" stopTime="0.00" timeLoss="13.87" rerouteNo="0" devices="tripinfo_WE_37 emissions_WE_37" vType="typeCar" speedFactor="0.85" vaporized="">
        <emissions CO_abs="2819.251390" CO2_abs="166058.332272" HC_abs="16.616079" PMx_abs="2.578973" NOx_abs="65.615152" fuel_abs="52965.551532" electricity_abs="0"/>
    </tripinfo>
    <tripinfo id="WE_60" depart="53.00" departLane="WE1_0" departPos="5.10" departSpeed="0.00" departDelay="5.00" arrival="103.00" arrivalLane="WE2_0" arrivalPos="310.57" arrivalSpeed="12.97" duration="50.00" routeLength="593.54" waitingTime="0.00" waitingCount="0" stopTime="0.00" timeLoss="5.70" rerouteNo="0" devices="tripinfo_WE_60 emissions_WE_60" vType="typeCar" speedFactor="0.97" vaporized="">
        <emissions CO_abs="1553.001557" CO2_abs="132861.752579" HC_abs="9.914488" PMx_abs="1.868368" NOx_abs="49.978062" fuel_abs="42377.090808" electricity_abs="0"/>
    </tripinfo>
    <tripinfo id="WE_61" depart="57.00" departLane="WE1_0" departPos="5.10" departSpeed="0.00" departDelay="6.00" arrival="104.00" arrivalLane="NS2_1" arrivalPos="287.99" arrivalSpeed="15.19" duration="47.00" routeLength="559.17" waitingTime="0.00" waitingCount="0" stopTime="0.00" timeLoss="9.80" rerouteNo="0" devices="tripinfo_WE_61 emissions_WE_61" vType="typeCar" speedFactor="1.12" vaporized="">
        <emissions CO_abs="2077.599867" CO2_abs="161435.666722" HC_abs="12.774931" PMx_abs="2.519251" NOx_abs="62.018235" fuel_abs="51490.700533" electricity_abs="0"/>
    </tripinfo>
    <tripinfo id="WE_58" depart="47.00" departLane="WE1_0" departPos="5.10" departSpeed="0.00" departDelay="5.00" arrival="105.00" arrivalLane="NS2_0" arrivalPos="287.99" arrivalSpeed="13.19" duration="58.00" routeLength="559.17" waitingTime="0.00" waitingCount="0" stopTime="0.00" timeLoss="16.27" rerouteNo="0" devices="tripinfo_WE_58 emissions_WE_58" vType="typeCar" speedFactor="1.00" vaporized="">
        <emissions CO_abs="2807.313063" CO2_abs="171143.119026" HC_abs="16.629870" PMx_abs="2.824075" NOx_abs="68.412168" fuel_abs="54587.129548" electricity_abs="0"/>
    </tripinfo>
    <tripinfo id="WE_62" depart="60.00" departLane="WE1_0" departPos="5.10" departSpeed="0.00" departDelay="6.00" arrival="109.00" arrivalLane="NS2_0" arrivalPos="287.99" arrivalSpeed="13.29" duration="49.00" routeLength="559.17" waitingTime="0.00" waitingCount="0" stopTime="0.00" timeLoss="7.16" rerouteNo="0" devices="tripinfo_WE_62 emissions_WE_62" vType="typeCar" speedFactor="0.99" vaporized="">
        <emissions CO_abs="1900.406911" CO2_abs="143329.698688" HC_abs="11.895459" PMx_abs="2.292761" NOx_abs="56.465098" fuel_abs="45715.698207" electricity_abs="0"/>
    </tripinfo>
    <tripinfo id="NS_12" depart="0.00" departLane="NS1_0" departPos="5.10" departSpeed="0.00" departDelay="0.00" arrival="117.00" arrivalLane="WE2_0" arrivalPos="310.57" arrivalSpeed="14.02" duration="117.00" routeLength="604.61" waitingTime="63.00" waitingCount="1" stopTime="0.00" timeLoss="72.89" rerouteNo="0" devices="tripinfo_NS_12 emissions_NS_12" vType="typeCar" speedFactor="1.01" vaporized="">
        <emissions CO_abs="12817.290881" CO2_abs="338550.643062" HC_abs="66.023460" PMx_abs="6.900302" NOx_abs="143.638958" fuel_abs="107985.905395" electricity_abs="0"/>
    </tripinfo>
    <tripinfo id="NS_13" depart="3.00" departLane="NS1_0" departPos="5.10" departSpeed="0.00" departDelay="1.00" arrival="117.00" arrivalLane="EW2_0" arrivalPos="267.19" arrivalSpeed="11.28" duration="114.00" routeLength="550.87" waitingTime="57.00" waitingCount="1" stopTime="0.00" timeLoss="65.70" rerouteNo="0" devices="tripinfo_NS_13 emissions_NS_13" vType="typeCar" speedFactor="0.83" vaporized="">
        <emissions CO_abs="11762.473191" CO2_abs="301418.353489" HC_abs="60.527441" PMx_abs="5.961886" NOx_abs="127.476464" fuel_abs="96142.408954" electricity_abs="0"/>
    </tripinfo>
    <tripinfo id="NS_15" depart="9.00" departLane="NS1_0" departPos="5.10" departSpeed="0.00" departDelay="1.00" arrival="118.00" arrivalLane="EW2_1" arrivalPos="267.19" arrivalSpeed="13.92" duration="109.00" routeLength="550.87" waitingTime="55.00" waitingCount="1" stopTime="0.00" timeLoss="69.27" rerouteNo="0" devices="tripinfo_NS_15 emissions_NS_15" vType="typeCar" speedFactor="1.03" vaporized="">
        <emissions CO_abs="11855.285288" CO2_abs="312091.105855" HC_abs="61.188577" PMx_abs="6.521568" NOx_abs="134.101203" fuel_abs="99546.040094" electricity_abs="0"/>
    </tripinfo>
    <tripinfo id="NS_14" depart="6.00" departLane="NS1_0" departPos="5.10" departSpeed="0.00" departDelay="1.00" arrival="122.00" arrivalLane="NS2_0" arrivalPos="287.99" arrivalSpeed="11.58" duration="116.00" routeLength="583.45" waitingTime="55.00" waitingCount="1" stopTime="0.00" timeLoss="66.34" rerouteNo="0" devices="tripinfo_NS_14 emissions_NS_14" vType="typeCar" speedFactor="0.86" vaporized="">
        <emissions CO_abs="11609.972334" CO2_abs="306000.447248" HC_abs="59.933568" PMx_abs="6.045282" NOx_abs="129.326343" fuel_abs="97603.742216" electricity_abs="0"/>
    </tripinfo>
    <tripinfo id="NS_17" depart="15.00" departLane="NS1_0" departPos="5.10" departSpeed="0.00" departDelay="1.00" arrival="122.00" arrivalLane="WE2_0" arrivalPos="310.57" arrivalSpeed="12.86" duration="107.00" routeLength="604.61" waitingTime="49.00" waitingCount="1" stopTime="0.00" timeLoss="59.42" rerouteNo="0" devices="tripinfo_NS_17 emissions_NS_17" vType="typeCar" speedFactor="0.94" vaporized="">
        <emissions CO_abs="10421.755059" CO2_abs="297856.308727" HC_abs="54.199538" PMx_abs="5.687122" NOx_abs="124.020345" fuel_abs="95005.727692" electricity_abs="0"/>
    </tripinfo>
    <tripinfo id="NS_38" depart="21.00" departLane="NS1_0" departPos="5.10" departSpeed="0.00" departDelay="1.00" arrival="122.00" arrivalLane="NS2_1" arrivalPos="287.99" arrivalSpeed="11.98" duration="101.00" routeLength="583.45" waitingTime="43.00" waitingCount="1" stopTime="0.00" timeLoss="54.97" rerouteNo="0" devices="tripinfo_NS_38 emissions_NS_38" vType="typeCar" speedFactor="0.92" vaporized="">
        <emissions CO_abs="9475.532732" CO2_abs="273812.081319" HC_abs="49.398384" PMx_abs="5.160016" NOx_abs="113.738849" fuel_abs="87336.466949" electricity_abs="0"/>
    </tripinfo>
    <tripinfo id="NS_16" depart="12.00" departLane="NS1_0" departPos="5.10" departSpeed="0.00" departDelay="1.00" arrival="123.00" arrivalLane="EW2_0" arrivalPos="267.19" arrivalSpeed="11.90" duration="111.00" routeLength="550.87" waitingTime="53.00" waitingCount="1" stopTime="0.00" timeLoss="66.36" rerouteNo="0" devices="tripinfo_NS_16 emissions_NS_16" vType="typeCar" speedFactor="0.93" vaporized="">
        <emissions CO_abs="11760.530522" CO2_abs="304859.065054" HC_abs="60.557500" PMx_abs="6.248273" NOx_abs="130.189251" fuel_abs="97239.538236" electricity_abs="0"/>
    </tripinfo>
    <tripinfo id="NS_40" depart="27.00" departLane="NS1_0" departPos="5.10" departSpeed="0.00" departDelay="2.00" arrival="124.00" arrivalLane="NS2_0" arrivalPos="287.99" arrivalSpeed="15.80" duration="97.00" routeLength="583.45" waitingTime="42.00" waitingCount="1" stopTime="0.00" timeLoss="60.20" rerouteNo="0" devices="tripinfo_NS_40 emissions_NS_40" vType="typeCar" speedFactor="1.17" vaporized="">
        <emissions CO_abs="10214.705024" CO2_abs="309901.308168" HC_abs="53.672120" PMx_abs="6.398803" NOx_abs="132.359861" fuel_abs="98846.688894" electricity_abs="0"/>
    </tripinfo>
    <tripinfo id="NS_39" depart="24.00" departLane="NS1_0" departPos="5.10" departSpeed="0.00" departDelay="2.00" arrival="125.00" arrivalLane="NS2_1" arrivalPos="287.99" arrivalSpeed="11.73" duration="101.00" routeLength="583.45" waitingTime="42.00" waitingCount="1" stopTime="0.00" timeLoss="55.84" rerouteNo="0" devices="tripinfo_NS_39 emissions_NS_39" vType="typeCar" speedFactor="0.93" vaporized="">
        <emissions CO_abs="9452.854259" CO2_abs="269943.461495" HC_abs="49.158026" PMx_abs="5.254112" NOx_abs="113.212612" fuel_abs="86102.380945" electricity_abs="0"/>
    </tripinfo>
    <tripinfo id="NS_41" depart="30.00" departLane="NS1_0" departPos="5.10" departSpeed="0.00" departDelay="3.00" arrival="125.00" arrivalLane="NS2_0" arrivalPos="287.99" arrivalSpeed="15.66" duration="95.00" routeLength="583.45" waitingTime="43.00" waitingCount="1" stopTime="0.00" timeLoss="59.22" rerouteNo="0" devices="tripinfo_NS_41 emissions_NS_41" vType="typeCar" speedFactor="1.18" vaporized="">
        <emissions CO_abs="10128.425812" CO2_abs="296668.987623" HC_abs="52.762577" PMx_abs="6.103763" NOx_abs="125.990118" fuel_abs="94626.319526" electricity_abs="0"/>
    </tripinfo>
    <tripinfo id="NS_18" depart="18.00" departLane="NS1_0" departPos="5.10" departSpeed="0.00" departDelay="1.00" arrival="127.00" arrivalLane="EW2_0" arrivalPos="267.19" arrivalSpeed="11.78" duration="109.00" routeLength="550.87" waitingTime="49.00" waitingCount="1" stopTime="0.00" timeLoss="62.84" rerouteNo="0" devices="tripinfo_NS_18 emissions_NS_18" vType="typeCar" speedFactor="0.89" vaporized="">
        <emissions CO_abs="10934.986811" CO2_abs="290727.475643" HC_abs="56.452900" PMx_abs="5.777829" NOx_abs="123.167906" fuel_abs="92732.066179" electricity_abs="0"/>
    </tripinfo>
    <tripinfo id="NS_42" depart="33.00" departLane="NS1_0" departPos="5.10" departSpeed="0.00" departDelay="3.00" arrival="128.00" arrivalLane="WE2_1" arrivalPos="310.57" arrivalSpeed="13.63" duration="95.00" routeLength="604.61" waitingTime="38.00" waitingCount="1" stopTime="0.00" timeLoss="51.74" rerouteNo="0" devices="tripinfo_NS_42 emissions_NS_42" vType="typeCar" speedFactor="1.03" vaporized="">
        <emissions CO_abs="9126.243998" CO2_abs="274513.749155" HC_abs="47.854376" PMx_abs="5.402746" NOx_abs="115.284868" fuel_abs="87559.779566" electricity_abs="0"/>
    </tripinfo>
    <tripinfo id="NS_45" depart="42.00" departLane="NS1_0" departPos="5.10" departSpeed="0.00" departDelay="5.00" arrival="128.00" arrivalLane="EW2_1" arrivalPos="267.19" arrivalSpeed="15.58" duration="86.00" routeLength="550.87" waitingTime="33.00" waitingCount="1" stopTime="0.00" timeLoss="51.05" rerouteNo="0" devices="tripinfo_NS_45 emissions_NS_45" vType="typeCar" speedFactor="1.17" vaporized="">
        <emissions CO_abs="8826.793647" CO2_abs="274193.606917" HC_abs="46.466945" PMx_abs="5.599330" NOx_abs="116.233030" fuel_abs="87457.232339" electricity_abs="0"/>
    </tripinfo>
    <tripinfo id="NS_43" depart="36.00" departLane="NS1_0" departPos="5.10" departSpeed="0.00" departDelay="4.00" arrival="129.00" arrivalLane="NS2_0" arrivalPos="287.99" arrivalSpeed="13.67" duration="93.00" routeLength="583.45" waitingTime="38.00" waitingCount="1" stopTime="0.00" timeLoss="51.83" rerouteNo="0" devices="tripinfo_NS_43 emissions_NS_43" vType="typeCar" speedFactor="1.04" vaporized="">
        <emissions CO_abs="8769.500124" CO2_abs="268612.589094" HC_abs="45.825210" PMx_abs="5.168346" NOx_abs="111.698732" fuel_abs="85677.533704" electricity_abs="0"/>
    </tripinfo>
    <tripinfo id="NS_65" depart="50.00" departLane="NS1_0" departPos="5.10" departSpeed="0.00" departDelay="0.00" arrival="129.00" arrivalLane="NS2_1" arrivalPos="287.99" arrivalSpeed="14.68" duration="79.00" routeLength="583.45" waitingTime="26.00" waitingCount="1" stopTime="0.00" timeLoss="39.81" rerouteNo="0" devices="tripinfo_NS_65 emissions_NS_65" vType="typeCar" speedFactor="1.08" vaporized="">
        <emissions CO_abs="7109.367223" CO2_abs="246937.258275" HC_abs="38.015392" PMx_abs="4.749459" NOx_abs="102.824892" fuel_abs="78763.329816" electricity_abs="0"/>
    </tripinfo>
    <tripinfo id="NS_64" depart="45.00" departLane="NS1_0" departPos="5.10" departSpeed="0.00" departDelay="5.00" arrival="133.00" arrivalLane="EW2_0" arrivalPos="267.19" arrivalSpeed="12.89" duration="88.00" routeLength="550.87" waitingTime="30.00" waitingCount="1" stopTime="0.00" timeLoss="47.19" rerouteNo="0" devices="tripinfo_NS_64 emissions_NS_64" vType="typeCar" speedFactor="1.00" vaporized="">
        <emissions CO_abs="8131.609223" CO2_abs="254725.170406" HC_abs="42.744044" PMx_abs="4.910217" NOx_abs="106.458253" fuel_abs="81247.827960" electricity_abs="0"/>
    </tripinfo>
    <tripinfo id="NS_44" depart="39.00" departLane="NS1_0" departPos="5.10" departSpeed="0.00" departDelay="4.00" arrival="134.00" arrivalLane="WE2_0" arrivalPos="310.57" arrivalSpeed="11.64" duration="95.00" routeLength="604.61" waitingTime="32.00" waitingCount="1" stopTime="0.00" timeLoss="45.33" rerouteNo="0" devices="tripinfo_NS_44 emissions_NS_44" vType="typeCar" speedFactor="0.90" vaporized="">
        <emissions CO_abs="8168.967770" CO2_abs="253566.899987" HC_abs="43.034921" PMx_abs="4.821415" NOx_abs="105.896809" fuel_abs="80878.511425" electricity_abs="0"/>
    </tripinfo>
    <tripinfo id="NS_71" depart="60.00" departLane="NS1_0" departPos="5.10" departSpeed="0.00" departDelay="0.00" arrival="134.00" arrivalLane="WE2_1" arrivalPos="310.57" arrivalSpeed="14.23" duration="74.00" routeLength="604.61" waitingTime="15.00" waitingCount="1" stopTime="0.00" timeLoss="31.12" rerouteNo="0" devices="tripinfo_NS_71 emissions_NS_71" vType="typeCar" speedFactor="1.04" vaporized="">
        <emissions CO_abs="5659.843638" CO2_abs="229928.066719" HC_abs="30.922871" PMx_abs="4.087340" NOx_abs="93.291219" fuel_abs="73337.838433" electricity_abs="0"/>
    </tripinfo>
    <tripinfo id="NS_91" depart="86.00" departLane="NS1_0" departPos="5.10" departSpeed="0.00" departDelay="2.00" arrival="135.00" arrivalLane="NS2_1" arrivalPos="287.99" arrivalSpeed="13.55" duration="49.00" routeLength="583.45" waitingTime="0.00" waitingCount="0" stopTime="0.00" timeLoss="8.56" rerouteNo="0" devices="tripinfo_NS_91 emissions_NS_91" vType="typeCar" speedFactor="1.04" vaporized="">
        <emissions CO_abs="1879.176844" CO2_abs="146097.728806" HC_abs="11.860004" PMx_abs="2.311984" NOx_abs="57.190608" fuel_abs="46598.580998" electricity_abs="0"/>
    </tripinfo>
    <tripinfo id="NS_90" depart="83.00" departLane="NS1_0" departPos="5.10" departSpeed="0.00" departDelay="1.00" arrival="136.00" arrivalLane="WE2_1" arrivalPos="310.57" arrivalSpeed="15.17" duration="53.00" routeLength="604.61" waitingTime="0.00" waitingCount="0" stopTime="0.00" timeLoss="13.70" rerouteNo="0" devices="tripinfo_NS_90 emissions_NS_90" vType="typeCar" speedFactor="1.15" vaporized="">
        <emissions CO_abs="2570.348339" CO2_abs="181083.641142" HC_abs="15.731369" PMx_abs="3.034679" NOx_abs="72.178884" fuel_abs="57757.427203" electricity_abs="0"/>
    </tripinfo>
    <tripinfo id="NS_72" depart="70.00" departLane="NS1_0" departPos="5.10" departSpeed="0.00" departDelay="0.00" arrival="137.00" arrivalLane="NS2_0" arrivalPos="287.99" arrivalSpeed="13.65" duration="67.00" routeLength="583.45" waitingTime="6.00" waitingCount="1" stopTime="0.00" timeLoss="23.59" rerouteNo="0" devices="tripinfo_NS_72 emissions_NS_72" vType="typeCar" speedFactor="0.98" vaporized="">
        <emissions CO_abs="4238.777364" CO2_abs="202250.012057" HC_abs="23.863078" PMx_abs="3.507736" NOx_abs="81.657293" fuel_abs="64509.278366" electricity_abs="0"/>
    </tripinfo>
    <tripinfo id="NS_89" depart="80.00" departLane="NS1_0" departPos="5.10" departSpeed="0.00" departDelay="0.00" arrival="137.00" arrivalLane="EW2_0" arrivalPos="267.19" arrivalSpeed="13.68" duration="57.00" routeLength="550.87" waitingTime="0.00" waitingCount="0" stopTime="0.00" timeLoss="17.25" rerouteNo="0" devices="tripinfo_NS_89 emissions_NS_89" vType="typeCar" speedFactor="1.02" vaporized="">
        <emissions CO_abs="3176.607510" CO2_abs="177279.887957" HC_abs="18.416627" PMx_abs="3.026517" NOx_abs="71.447940" fuel_abs="56544.541278" electricity_abs="0"/>
    </tripinfo>