<?xml version="1.0" encoding="UTF-8"?>

<!-- generated on 2024-05-27 17:38:38 by Eclipse SUMO sumo Version 1.19.0
<configuration xmlns:xsi="http://www.w3.org/2001/XMLSchema-instance" xsi:noNamespaceSchemaLocation="http://sumo.dlr.de/xsd/sumoConfiguration.xsd">

    <input>
        <net-file value="maps/crosnew.net.xml"/>
        <route-files value="maps/27-17-18-46.rou.xml"/>
    </input>

    <output>
        <emission-output value="outputs/emissions2.xml"/>
        <queue-output value="outputs/queue2.xml"/>
        <tripinfo-output value="tripinfodemo.xml"/>
    </output>

    <time>
        <begin value="0"/>
    </time>

    <report>
        <verbose value="true"/>
        <no-warnings value="true"/>
        <no-step-log value="true"/>
    </report>

    <traci_server>
        <remote-port value="54922"/>
    </traci_server>

</configuration>
-->

<tripinfos xmlns:xsi="http://www.w3.org/2001/XMLSchema-instance" xsi:noNamespaceSchemaLocation="http://sumo.dlr.de/xsd/tripinfo_file.xsd">
    <tripinfo id="EW_0" depart="0.00" departLane="EW1_0" departPos="5.10" departSpeed="0.00" departDelay="0.00" arrival="48.00" arrivalLane="SN2_0" arrivalPos="279.75" arrivalSpeed="14.71" duration="48.00" routeLength="594.28" waitingTime="0.00" waitingCount="0" stopTime="0.00" timeLoss="6.79" rerouteNo="0" devices="tripinfo_EW_0 emissions_EW_0" vType="typeCar" speedFactor="1.06" vaporized="">
        <emissions CO_abs="2060.678584" CO2_abs="157910.162705" HC_abs="12.871404" PMx_abs="2.681067" NOx_abs="62.865026" fuel_abs="50366.003224" electricity_abs="0"/>
    </tripinfo>
    <tripinfo id="EW_1" depart="3.00" departLane="EW1_0" departPos="5.10" departSpeed="0.00" departDelay="1.00" arrival="50.00" arrivalLane="EW2_0" arrivalPos="267.19" arrivalSpeed="13.29" duration="47.00" routeLength="593.49" waitingTime="0.00" waitingCount="0" stopTime="0.00" timeLoss="5.43" rerouteNo="0" devices="tripinfo_EW_1 emissions_EW_1" vType="typeCar" speedFactor="1.03" vaporized="">
        <emissions CO_abs="1456.110870" CO2_abs="133154.853586" HC_abs="9.347323" PMx_abs="1.870433" NOx_abs="49.820231" fuel_abs="42470.498880" electricity_abs="0"/>
    </tripinfo>
    <tripinfo id="EW_3" depart="9.00" departLane="EW1_0" departPos="5.10" departSpeed="0.00" departDelay="2.00" arrival="54.00" arrivalLane="EW2_1" arrivalPos="267.19" arrivalSpeed="13.98" duration="45.00" routeLength="593.49" waitingTime="0.00" waitingCount="0" stopTime="0.00" timeLoss="5.23" rerouteNo="0" devices="tripinfo_EW_3 emissions_EW_3" vType="typeCar" speedFactor="1.09" vaporized="">
        <emissions CO_abs="1633.770112" CO2_abs="138488.650331" HC_abs="10.446772" PMx_abs="2.230831" NOx_abs="54.034755" fuel_abs="44171.488286" electricity_abs="0"/>
    </tripinfo>
    <tripinfo id="EW_4" depart="12.00" departLane="EW1_0" departPos="5.10" departSpeed="0.00" departDelay="2.00" arrival="58.00" arrivalLane="NS2_1" arrivalPos="287.99" arrivalSpeed="15.59" duration="46.00" routeLength="612.81" waitingTime="0.00" waitingCount="0" stopTime="0.00" timeLoss="6.00" rerouteNo="0" devices="tripinfo_EW_4 emissions_EW_4" vType="typeCar" speedFactor="1.12" vaporized="">
        <emissions CO_abs="1760.045189" CO2_abs="157890.704905" HC_abs="11.374966" PMx_abs="2.437508" NOx_abs="59.901871" fuel_abs="50359.948843" electricity_abs="0"/>
    </tripinfo>
    <tripinfo id="EW_2" depart="6.00" departLane="EW1_0" departPos="5.10" departSpeed="0.00" departDelay="1.00" arrival="62.00" arrivalLane="SN2_0" arrivalPos="279.75" arrivalSpeed="12.18" duration="56.00" routeLength="594.28" waitingTime="0.00" waitingCount="0" stopTime="0.00" timeLoss="6.94" rerouteNo="0" devices="tripinfo_EW_2 emissions_EW_2" vType="typeCar" speedFactor="0.89" vaporized="">
        <emissions CO_abs="2120.194504" CO2_abs="155365.151407" HC_abs="13.182753" PMx_abs="2.378798" NOx_abs="60.839581" fuel_abs="49554.609348" electricity_abs="0"/>
    </tripinfo>
    <tripinfo id="SN_19" depart="0.00" departLane="SN1_0" departPos="5.10" departSpeed="0.00" departDelay="0.00" arrival="64.00" arrivalLane="EW2_1" arrivalPos="267.19" arrivalSpeed="14.04" duration="64.00" routeLength="569.46" waitingTime="17.00" waitingCount="1" stopTime="0.00" timeLoss="25.48" rerouteNo="0" devices="tripinfo_SN_19 emissions_SN_19" vType="typeCar" speedFactor="1.08" vaporized="">
        <emissions CO_abs="4958.732279" CO2_abs="210100.512713" HC_abs="27.255992" PMx_abs="3.819229" NOx_abs="85.285477" fuel_abs="67013.425371" electricity_abs="0"/>
    </tripinfo>
    <tripinfo id="SN_20" depart="4.00" departLane="SN1_0" departPos="5.10" departSpeed="0.00" departDelay="0.00" arrival="67.00" arrivalLane="EW2_1" arrivalPos="267.19" arrivalSpeed="13.69" duration="63.00" routeLength="569.46" waitingTime="12.00" waitingCount="1" stopTime="0.00" timeLoss="22.93" rerouteNo="0" devices="tripinfo_SN_20 emissions_SN_20" vType="typeCar" speedFactor="1.05" vaporized="">
        <emissions CO_abs="4430.124854" CO2_abs="193350.285055" HC_abs="24.451466" PMx_abs="3.420365" NOx_abs="78.103999" fuel_abs="61670.799458" electricity_abs="0"/>
    </tripinfo>
    <tripinfo id="SN_21" depart="8.00" departLane="SN1_0" departPos="5.10" departSpeed="0.00" departDelay="0.00" arrival="68.00" arrivalLane="WE2_0" arrivalPos="310.57" arrivalSpeed="14.03" duration="60.00" routeLength="602.52" waitingTime="7.00" waitingCount="1" stopTime="0.00" timeLoss="17.60" rerouteNo="0" devices="tripinfo_SN_21 emissions_SN_21" vType="typeCar" speedFactor="1.05" vaporized="">
        <emissions CO_abs="3637.732046" CO2_abs="191162.368729" HC_abs="20.669007" PMx_abs="3.241209" NOx_abs="76.173702" fuel_abs="60972.625541" electricity_abs="0"/>
    </tripinfo>
    <tripinfo id="SN_23" depart="16.00" departLane="SN1_0" departPos="5.10" departSpeed="0.00" departDelay="0.00" arrival="70.00" arrivalLane="WE2_0" arrivalPos="310.57" arrivalSpeed="12.80" duration="54.00" routeLength="602.52" waitingTime="2.00" waitingCount="1" stopTime="0.00" timeLoss="10.39" rerouteNo="0" devices="tripinfo_SN_23 emissions_SN_23" vType="typeCar" speedFactor="1.01" vaporized="">
        <emissions CO_abs="2682.283695" CO2_abs="174383.104549" HC_abs="15.951345" PMx_abs="2.860356" NOx_abs="68.975875" fuel_abs="55620.454118" electricity_abs="0"/>
    </tripinfo>
    <tripinfo id="SN_22" depart="12.00" departLane="SN1_0" departPos="5.10" departSpeed="0.00" departDelay="0.00" arrival="72.00" arrivalLane="EW2_1" arrivalPos="267.19" arrivalSpeed="12.56" duration="60.00" routeLength="569.46" waitingTime="4.00" waitingCount="1" stopTime="0.00" timeLoss="15.05" rerouteNo="0" devices="tripinfo_SN_22 emissions_SN_22" vType="typeCar" speedFactor="0.94" vaporized="">
        <emissions CO_abs="3193.699041" CO2_abs="169650.710479" HC_abs="18.178651" PMx_abs="2.745448" NOx_abs="67.097127" fuel_abs="54111.451561" electricity_abs="0"/>
    </tripinfo>
    <tripinfo id="SN_46" depart="20.00" departLane="SN1_0" departPos="5.10" departSpeed="0.00" departDelay="0.00" arrival="72.00" arrivalLane="SN2_0" arrivalPos="279.75" arrivalSpeed="11.99" duration="52.00" routeLength="583.47" waitingTime="0.00" waitingCount="0" stopTime="0.00" timeLoss="6.91" rerouteNo="0" devices="tripinfo_SN_46 emissions_SN_46" vType="typeCar" speedFactor="0.95" vaporized="">
        <emissions CO_abs="1835.529754" CO2_abs="144900.563545" HC_abs="11.572511" PMx_abs="2.190585" NOx_abs="56.313539" fuel_abs="46216.814464" electricity_abs="0"/>
    </tripinfo>
    <tripinfo id="SN_47" depart="23.00" departLane="SN1_0" departPos="5.10" departSpeed="0.00" departDelay="0.00" arrival="72.00" arrivalLane="EW2_0" arrivalPos="267.19" arrivalSpeed="15.08" duration="49.00" routeLength="569.46" waitingTime="0.00" waitingCount="0" stopTime="0.00" timeLoss="12.63" rerouteNo="0" devices="tripinfo_SN_47 emissions_SN_47" vType="typeCar" speedFactor="1.15" vaporized="">
        <emissions CO_abs="2487.761993" CO2_abs="173833.464185" HC_abs="15.264758" PMx_abs="3.011207" NOx_abs="69.991466" fuel_abs="55444.865125" electricity_abs="0"/>
    </tripinfo>
    <tripinfo id="SN_48" depart="26.00" departLane="SN1_0" departPos="5.10" departSpeed="0.00" departDelay="0.00" arrival="73.00" arrivalLane="SN2_1" arrivalPos="279.75" arrivalSpeed="13.21" duration="47.00" routeLength="583.47" waitingTime="0.00" waitingCount="0" stopTime="0.00" timeLoss="5.15" rerouteNo="0" devices="tripinfo_SN_48 emissions_SN_48" vType="typeCar" speedFactor="1.02" vaporized="">
        <emissions CO_abs="1509.577862" CO2_abs="136561.925922" HC_abs="9.824633" PMx_abs="2.021394" NOx_abs="52.132877" fuel_abs="43557.101700" electricity_abs="0"/>
    </tripinfo>
    <tripinfo id="SN_50" depart="33.00" departLane="SN1_0" departPos="5.10" departSpeed="0.00" departDelay="0.00" arrival="78.00" arrivalLane="SN2_1" arrivalPos="279.75" arrivalSpeed="14.52" duration="45.00" routeLength="583.47" waitingTime="0.00" waitingCount="0" stopTime="0.00" timeLoss="5.44" rerouteNo="0" devices="tripinfo_SN_50 emissions_SN_50" vType="typeCar" speedFactor="1.09" vaporized="">
        <emissions CO_abs="1475.916236" CO2_abs="138768.844681" HC_abs="9.707736" PMx_abs="2.067710" NOx_abs="52.660850" fuel_abs="44260.974488" electricity_abs="0"/>
    </tripinfo>
    <tripinfo id="SN_49" depart="30.00" departLane="SN1_0" departPos="5.10" departSpeed="0.00" departDelay="0.00" arrival="84.00" arrivalLane="WE2_0" arrivalPos="310.57" arrivalSpeed="12.11" duration="54.00" routeLength="602.52" waitingTime="0.00" waitingCount="0" stopTime="0.00" timeLoss="7.03" rerouteNo="0" devices="tripinfo_SN_49 emissions_SN_49" vType="typeCar" speedFactor="0.96" vaporized="">
        <emissions CO_abs="1903.308471" CO2_abs="148886.435126" HC_abs="11.870908" PMx_abs="2.269302" NOx_abs="57.747114" fuel_abs="47488.123152" electricity_abs="0"/>
    </tripinfo>
    <tripinfo id="SN_51" depart="36.00" departLane="SN1_0" departPos="5.10" departSpeed="0.00" departDelay="0.00" arrival="96.00" arrivalLane="WE2_0" arrivalPos="310.57" arrivalSpeed="11.18" duration="60.00" routeLength="602.52" waitingTime="0.00" waitingCount="0" stopTime="0.00" timeLoss="7.40" rerouteNo="0" devices="tripinfo_SN_51 emissions_SN_51" vType="typeCar" speedFactor="0.85" vaporized="">
        <emissions CO_abs="2246.270310" CO2_abs="151986.742373" HC_abs="13.685606" PMx_abs="2.270759" NOx_abs="59.345293" fuel_abs="48477.210853" electricity_abs="0"/>
    </tripinfo>
    <tripinfo id="WE_10" depart="10.00" departLane="WE1_0" departPos="5.10" departSpeed="0.00" departDelay="0.00" arrival="107.00" arrivalLane="NS2_0" arrivalPos="287.99" arrivalSpeed="13.37" duration="97.00" routeLength="559.17" waitingTime="47.00" waitingCount="1" stopTime="0.00" timeLoss="55.41" rerouteNo="0" devices="tripinfo_WE_10 emissions_WE_10" vType="typeCar" speedFactor="0.99" vaporized="">
        <emissions CO_abs="10030.298066" CO2_abs="282875.505367" HC_abs="51.984201" PMx_abs="5.640114" NOx_abs="118.976705" fuel_abs="90227.180033" electricity_abs="0"/>
    </tripinfo>
    <tripinfo id="WE_8" depart="0.00" departLane="WE1_0" departPos="5.10" departSpeed="0.00" departDelay="0.00" arrival="109.00" arrivalLane="SN2_0" arrivalPos="279.75" arrivalSpeed="12.16" duration="109.00" routeLength="561.24" waitingTime="55.00" waitingCount="1" stopTime="0.00" timeLoss="64.77" rerouteNo="0" devices="tripinfo_WE_8 emissions_WE_8" vType="typeCar" speedFactor="0.94" vaporized="">
        <emissions CO_abs="11381.881547" CO2_abs="297457.261301" HC_abs="58.574101" PMx_abs="5.961961" NOx_abs="125.864705" fuel_abs="94878.729813" electricity_abs="0"/>
    </tripinfo>
    <tripinfo id="WE_11" depart="15.00" departLane="WE1_0" departPos="5.10" departSpeed="0.00" departDelay="0.00" arrival="109.00" arrivalLane="NS2_0" arrivalPos="287.99" arrivalSpeed="13.78" duration="94.00" routeLength="559.17" waitingTime="43.00" waitingCount="1" stopTime="0.00" timeLoss="53.39" rerouteNo="0" devices="tripinfo_WE_11 emissions_WE_11" vType="typeCar" speedFactor="1.02" vaporized="">
        <emissions CO_abs="9676.937027" CO2_abs="273478.530139" HC_abs="50.315094" PMx_abs="5.578593" NOx_abs="116.218342" fuel_abs="87229.715656" electricity_abs="0"/>
    </tripinfo>
    <tripinfo id="WE_9" depart="5.00" departLane="WE1_0" departPos="5.10" departSpeed="0.00" departDelay="0.00" arrival="111.00" arrivalLane="SN2_0" arrivalPos="279.75" arrivalSpeed="12.82" duration="106.00" routeLength="561.24" waitingTime="53.00" waitingCount="1" stopTime="0.00" timeLoss="61.67" rerouteNo="0" devices="tripinfo_WE_9 emissions_WE_9" vType="typeCar" speedFactor="0.94" vaporized="">
        <emissions CO_abs="10972.694326" CO2_abs="295361.795887" HC_abs="56.607220" PMx_abs="5.871828" NOx_abs="124.510284" fuel_abs="94210.194128" electricity_abs="0"/>
    </tripinfo>
    <tripinfo id="WE_31" depart="23.00" departLane="WE1_0" departPos="5.10" departSpeed="0.00" departDelay="1.00" arrival="111.00" arrivalLane="WE2_0" arrivalPos="310.57" arrivalSpeed="14.94" duration="88.00" routeLength="593.54" waitingTime="38.00" waitingCount="1" stopTime="0.00" timeLoss="49.38" rerouteNo="0" devices="tripinfo_WE_31 emissions_WE_31" vType="typeCar" speedFactor="1.13" vaporized="">
        <emissions CO_abs="8878.140306" CO2_abs="282894.627328" HC_abs="46.746469" PMx_abs="5.576506" NOx_abs="118.194441" fuel_abs="90232.627084" electricity_abs="0"/>
    </tripinfo>
    <tripinfo id="WE_33" depart="29.00" departLane="WE1_0" departPos="5.10" departSpeed="0.00" departDelay="2.00" arrival="114.00" arrivalLane="SN2_1" arrivalPos="279.75" arrivalSpeed="12.60" duration="85.00" routeLength="561.24" waitingTime="29.00" waitingCount="1" stopTime="0.00" timeLoss="42.48" rerouteNo="0" devices="tripinfo_WE_33 emissions_WE_33" vType="typeCar" speedFactor="0.97" vaporized="">
        <emissions CO_abs="7615.871346" CO2_abs="241713.666291" HC_abs="40.049058" PMx_abs="4.607707" NOx_abs="100.583081" fuel_abs="77097.642543" electricity_abs="0"/>
    </tripinfo>
    <tripinfo id="WE_32" depart="26.00" departLane="WE1_0" departPos="5.10" departSpeed="0.00" departDelay="1.00" arrival="116.00" arrivalLane="WE2_1" arrivalPos="310.57" arrivalSpeed="13.33" duration="90.00" routeLength="593.54" waitingTime="34.00" waitingCount="1" stopTime="0.00" timeLoss="46.64" rerouteNo="0" devices="tripinfo_WE_32 emissions_WE_32" vType="typeCar" speedFactor="1.01" vaporized="">
        <emissions CO_abs="8406.383176" CO2_abs="261964.464033" HC_abs="44.099931" PMx_abs="5.081736" NOx_abs="109.309881" fuel_abs="83556.899311" electricity_abs="0"/>
    </tripinfo>
    <tripinfo id="WE_36" depart="38.00" departLane="WE1_0" departPos="5.10" departSpeed="0.00" departDelay="3.00" arrival="116.00" arrivalLane="SN2_1" arrivalPos="279.75" arrivalSpeed="12.73" duration="78.00" routeLength="561.24" waitingTime="23.00" waitingCount="1" stopTime="0.00" timeLoss="36.46" rerouteNo="0" devices="tripinfo_WE_36 emissions_WE_36" vType="typeCar" speedFactor="1.00" vaporized="">
        <emissions CO_abs="6554.332978" CO2_abs="222739.151351" HC_abs="34.835512" PMx_abs="4.156142" NOx_abs="92.065236" fuel_abs="71045.294588" electricity_abs="0"/>
    </tripinfo>
    <tripinfo id="WE_30" depart="20.00" departLane="WE1_0" departPos="5.10" departSpeed="0.00" departDelay="0.00" arrival="117.00" arrivalLane="WE2_0" arrivalPos="310.57" arrivalSpeed="11.13" duration="97.00" routeLength="593.54" waitingTime="36.00" waitingCount="1" stopTime="0.00" timeLoss="47.40" rerouteNo="0" devices="tripinfo_WE_30 emissions_WE_30" vType="typeCar" speedFactor="0.87" vaporized="">
        <emissions CO_abs="8622.815644" CO2_abs="258748.215693" HC_abs="45.284654" PMx_abs="4.984829" NOx_abs="108.567516" fuel_abs="82531.266199" electricity_abs="0"/>
    </tripinfo>
    <tripinfo id="WE_35" depart="35.00" departLane="WE1_0" departPos="5.10" departSpeed="0.00" departDelay="3.00" arrival="118.00" arrivalLane="NS2_1" arrivalPos="287.99" arrivalSpeed="14.73" duration="83.00" routeLength="559.17" waitingTime="26.00" waitingCount="1" stopTime="0.00" timeLoss="44.85" rerouteNo="0" devices="tripinfo_WE_35 emissions_WE_35" vType="typeCar" speedFactor="1.09" vaporized="">
        <emissions CO_abs="7410.961189" CO2_abs="250036.570178" HC_abs="39.152925" PMx_abs="4.652774" NOx_abs="102.699280" fuel_abs="79752.170194" electricity_abs="0"/>
    </tripinfo>
    <tripinfo id="WE_59" depart="50.00" departLane="WE1_0" departPos="5.10" departSpeed="0.00" departDelay="5.00" arrival="118.00" arrivalLane="SN2_0" arrivalPos="279.75" arrivalSpeed="14.78" duration="68.00" routeLength="561.24" waitingTime="14.00" waitingCount="1" stopTime="0.00" timeLoss="31.30" rerouteNo="0" devices="tripinfo_WE_59 emissions_WE_59" vType="typeCar" speedFactor="1.14" vaporized="">
        <emissions CO_abs="5388.949708" CO2_abs="219205.660492" HC_abs="29.464790" PMx_abs="4.068557" NOx_abs="90.273952" fuel_abs="69917.601726" electricity_abs="0"/>
    </tripinfo>
    <tripinfo id="WE_34" depart="32.00" departLane="WE1_0" departPos="5.10" departSpeed="0.00" departDelay="2.00" arrival="119.00" arrivalLane="NS2_0" arrivalPos="287.99" arrivalSpeed="11.46" duration="87.00" routeLength="559.17" waitingTime="28.00" waitingCount="1" stopTime="0.00" timeLoss="40.85" rerouteNo="0" devices="tripinfo_WE_34 emissions_WE_34" vType="typeCar" speedFactor="0.90" vaporized="">
        <emissions CO_abs="7487.154367" CO2_abs="244919.353733" HC_abs="39.679581" PMx_abs="4.479000" NOx_abs="101.030388" fuel_abs="78120.210692" electricity_abs="0"/>
    </tripinfo>
    <tripinfo id="WE_57" depart="44.00" departLane="WE1_0" departPos="5.10" departSpeed="0.00" departDelay="4.00" arrival="122.00" arrivalLane="NS2_1" arrivalPos="287.99" arrivalSpeed="14.87" duration="78.00" routeLength="559.17" waitingTime="21.00" waitingCount="1" stopTime="0.00" timeLoss="40.26" rerouteNo="0" devices="tripinfo_WE_57 emissions_WE_57" vType="typeCar" speedFactor="1.10" vaporized="">
        <emissions CO_abs="6633.026857" CO2_abs="226743.432782" HC_abs="35.285909" PMx_abs="4.368799" NOx_abs="94.508555" fuel_abs="72322.305387" electricity_abs="0"/>
    </tripinfo>
    <tripinfo id="WE_60" depart="53.00" departLane="WE1_0" departPos="5.10" departSpeed="0.00" departDelay="5.00" arrival="122.00" arrivalLane="WE2_0" arrivalPos="310.57" arrivalSpeed="12.93" duration="69.00" routeLength="593.54" waitingTime="9.00" waitingCount="1" stopTime="0.00" timeLoss="24.76" rerouteNo="0" devices="tripinfo_WE_60 emissions_WE_60" vType="typeCar" speedFactor="0.97" vaporized="">
        <emissions CO_abs="4835.753395" CO2_abs="204710.028164" HC_abs="26.659177" PMx_abs="3.675689" NOx_abs="83.759654" fuel_abs="65294.101908" electricity_abs="0"/>
    </tripinfo>
    <tripinfo id="WE_69" depart="72.00" departLane="WE1_0" departPos="5.10" departSpeed="0.00" departDelay="2.00" arrival="124.00" arrivalLane="WE2_0" arrivalPos="310.57" arrivalSpeed="13.19" duration="52.00" routeLength="593.54" waitingTime="0.00" waitingCount="0" stopTime="0.00" timeLoss="7.14" rerouteNo="0" devices="tripinfo_WE_69 emissions_WE_69" vType="typeCar" speedFactor="0.96" vaporized="">
        <emissions CO_abs="1751.421217" CO2_abs="138819.355285" HC_abs="11.041252" PMx_abs="2.086462" NOx_abs="53.791238" fuel_abs="44277.197923" electricity_abs="0"/>
    </tripinfo>
    <tripinfo id="WE_37" depart="41.00" departLane="WE1_0" departPos="5.10" departSpeed="0.00" departDelay="4.00" arrival="125.00" arrivalLane="NS2_0" arrivalPos="287.99" arrivalSpeed="11.09" duration="84.00" routeLength="559.17" waitingTime="23.00" waitingCount="1" stopTime="0.00" timeLoss="36.21" rerouteNo="0" devices="tripinfo_WE_37 emissions_WE_37" vType="typeCar" speedFactor="0.85" vaporized="">
        <emissions CO_abs="6724.202599" CO2_abs="225956.984570" HC_abs="35.770930" PMx_abs="4.167821" NOx_abs="93.568941" fuel_abs="72071.762811" electricity_abs="0"/>
    </tripinfo>
    <tripinfo id="WE_70" depart="75.00" departLane="WE1_0" departPos="5.10" departSpeed="0.00" departDelay="0.00" arrival="126.00" arrivalLane="WE2_1" arrivalPos="310.57" arrivalSpeed="12.97" duration="51.00" routeLength="593.54" waitingTime="0.00" waitingCount="0" stopTime="0.00" timeLoss="8.00" rerouteNo="0" devices="tripinfo_WE_70 emissions_WE_70" vType="typeCar" speedFactor="1.01" vaporized="">
        <emissions CO_abs="1780.692199" CO2_abs="150520.844369" HC_abs="11.434302" PMx_abs="2.226903" NOx_abs="57.939639" fuel_abs="48009.422282" electricity_abs="0"/>
    </tripinfo>
    <tripinfo id="WE_58" depart="47.00" departLane="WE1_0" departPos="5.10" departSpeed="0.00" departDelay="5.00" arrival="127.00" arrivalLane="NS2_0" arrivalPos="287.99" arrivalSpeed="12.93" duration="80.00" routeLength="559.17" waitingTime="20.00" waitingCount="1" stopTime="0.00" timeLoss="38.68" rerouteNo="0" devices="tripinfo_WE_58 emissions_WE_58" vType="typeCar" speedFactor="1.00" vaporized="">
        <emissions CO_abs="6520.541962" CO2_abs="229821.972956" HC_abs="34.853540" PMx_abs="4.291163" NOx_abs="95.115061" fuel_abs="73304.280682" electricity_abs="0"/>
    </tripinfo>
    <tripinfo id="WE_61" depart="57.00" departLane="WE1_0" departPos="5.10" departSpeed="0.00" departDelay="6.00" arrival="127.00" arrivalLane="NS2_1" arrivalPos="287.99" arrivalSpeed="14.71" duration="70.00" routeLength="559.17" waitingTime="14.00" waitingCount="1" stopTime="0.00" timeLoss="32.95" rerouteNo="0" devices="tripinfo_WE_61 emissions_WE_61" vType="typeCar" speedFactor="1.12" vaporized="">
        <emissions CO_abs="5466.121605" CO2_abs="218564.842174" HC_abs="29.458905" PMx_abs="3.884649" NOx_abs="88.366960" fuel_abs="69713.425361" electricity_abs="0"/>
    </tripinfo>
    <tripinfo id="WE_85" depart="80.00" departLane="WE1_0" departPos="5.10" departSpeed="0.00" departDelay="0.00" arrival="128.00" arrivalLane="WE2_0" arrivalPos="310.57" arrivalSpeed="13.73" duration="48.00" routeLength="593.54" waitingTime="0.00" waitingCount="0" stopTime="0.00" timeLoss="5.12" rerouteNo="0" devices="tripinfo_WE_85 emissions_WE_85" vType="typeCar" speedFactor="1.00" vaporized="">
        <emissions CO_abs="1462.131233" CO2_abs="135757.972422" HC_abs="9.418845" PMx_abs="1.860250" NOx_abs="50.520361" fuel_abs="43300.827045" electricity_abs="0"/>
    </tripinfo>
    <tripinfo id="WE_62" depart="60.00" departLane="WE1_0" departPos="5.10" departSpeed="0.00" departDelay="6.00" arrival="133.00" arrivalLane="NS2_0" arrivalPos="287.99" arrivalSpeed="13.50" duration="73.00" routeLength="559.17" waitingTime="12.00" waitingCount="1" stopTime="0.00" timeLoss="30.80" rerouteNo="0" devices="tripinfo_WE_62 emissions_WE_62" vType="typeCar" speedFactor="0.99" vaporized="">
        <emissions CO_abs="5231.093053" CO2_abs="208876.761253" HC_abs="28.609325" PMx_abs="3.839998" NOx_abs="86.219978" fuel_abs="66623.198762" electricity_abs="0"/>
    </tripinfo>
    <tripinfo id="WE_86" depart="85.00" departLane="WE1_0" departPos="5.10" departSpeed="0.00" departDelay="0.00" arrival="133.00" arrivalLane="WE2_0" arrivalPos="310.57" arrivalSpeed="13.36" duration="48.00" routeLength="593.54" waitingTime="0.00" waitingCount="0" stopTime="0.00" timeLoss="5.11" rerouteNo="0" devices="tripinfo_WE_86 emissions_WE_86" vType="typeCar" speedFactor="1.01" vaporized="">
        <emissions CO_abs="1592.792837" CO2_abs="138207.069863" HC_abs="10.331410" PMx_abs="2.112630" NOx_abs="53.405242" fuel_abs="44081.793804" electricity_abs="0"/>
    </tripinfo>
    <tripinfo id="WE_87" depart="90.00" departLane="WE1_0" departPos="5.10" departSpeed="0.00" departDelay="0.00" arrival="134.00" arrivalLane="SN2_1" arrivalPos="279.75" arrivalSpeed="14.43" duration="44.00" routeLength="561.24" waitingTime="0.00" waitingCount="0" stopTime="0.00" timeLoss="5.87" rerouteNo="0" devices="tripinfo_WE_87 emissions_WE_87" vType="typeCar" speedFactor="1.09" vaporized="">
        <emissions CO_abs="1754.898723" CO2_abs="146502.826511" HC_abs="11.113780" PMx_abs="2.322363" NOx_abs="56.901961" fuel_abs="46727.692424" electricity_abs="0"/>
    </tripinfo>
    <tripinfo id="WE_63" depart="63.00" departLane="WE1_0" departPos="5.10" departSpeed="0.00" departDelay="6.00" arrival="138.00" arrivalLane="NS2_0" arrivalPos="287.99" arrivalSpeed="12.04" duration="75.00" routeLength="559.17" waitingTime="9.00" waitingCount="1" stopTime="0.00" timeLoss="27.58" rerouteNo="0" devices="tripinfo_WE_63 emissions_WE_63" vType="typeCar" speedFactor="0.88" vaporized="">
        <emissions CO_abs="4830.982497" CO2_abs="198859.107087" HC_abs="26.589552" PMx_abs="3.464878" NOx_abs="81.237654" fuel_abs="63428.078788" electricity_abs="0"/>
    </tripinfo>
    <tripinfo id="WE_67" depart="66.00" departLane="WE1_0" departPos="5.10" departSpeed="0.00" departDelay="6.00" arrival="139.00" arrivalLane="NS2_0" arrivalPos="287.99" arrivalSpeed="12.01" duration="73.00" routeLength="559.17" waitingTime="9.00" waitingCount="1" stopTime="0.00" timeLoss="28.09" rerouteNo="0" devices="tripinfo_WE_67 emissions_WE_67" vType="typeCar" speedFactor="0.91" vaporized="">
        <emissions CO_abs="4690.257392" CO2_abs="194321.740581" HC_abs="25.712364" PMx_abs="3.353793" NOx_abs="78.874574" fuel_abs="61980.873821" electricity_abs="0"/>
    </tripinfo>
    <tripinfo id="WE_68" depart="69.00" departLane="WE1_0" departPos="5.10" departSpeed="0.00" departDelay="4.00" arrival="140.00" arrivalLane="NS2_1" arrivalPos="287.99" arrivalSpeed="13.26" duration="71.00" routeLength="559.17" waitingTime="7.00" waitingCount="1" stopTime="0.00" timeLoss="29.06" rerouteNo="0" devices="tripinfo_WE_68 emissions_WE_68" vType="typeCar" speedFactor="0.97" vaporized="">
        <emissions CO_abs="4672.211015" CO2_abs="201558.886478" HC_abs="25.802720" PMx_abs="3.475906" NOx_abs="81.838447" fuel_abs="64289.100023" electricity_abs="0"/>
    </tripinfo>
    <tripinfo id="WE_88" depart="95.00" departLane="WE1_0" departPos="5.10" departSpeed="0.00" departDelay="0.00" arrival="141.00" arrivalLane="WE2_1" arrivalPos="310.57" arrivalSpeed="14.07" duration="46.00" routeLength="593.54" waitingTime="0.00" waitingCount="0" stopTime="0.00" timeLoss="5.21" rerouteNo="0" devices="tripinfo_WE_88 emissions_WE_88" vType="typeCar" speedFactor="1.06" vaporized="">
        <emissions CO_abs="1527.781234" CO2_abs="141017.957032" HC_abs="9.961747" PMx_abs="2.090583" NOx_abs="53.455035" fuel_abs="44978.356095" electricity_abs="0"/>
    </tripinfo>
    <tripinfo id="WE_112" depart="100.00" departLane="WE1_0" departPos="5.10" departSpeed="0.00" departDelay="0.00" arrival="146.00" arrivalLane="NS2_0" arrivalPos="287.99" arrivalSpeed="14.28" duration="46.00" routeLength="559.17" waitingTime="0.00" waitingCount="0" stopTime="0.00" timeLoss="6.34" rerouteNo="0" devices="tripinfo_WE_112 emissions_WE_112" vType="typeCar" speedFactor="1.03" vaporized="">
        <emissions CO_abs="1815.052582" CO2_abs="149475.562713" HC_abs="11.619128" PMx_abs="2.383406" NOx_abs="58.325309" fuel_abs="47675.881165" electricity_abs="0"/>
    </tripinfo>
    <tripinfo id="NS_12" depart="0.00" departLane="NS1_0" departPos="5.10" departSpeed="0.00" departDelay="0.00" arrival="153.00" arrivalLane="WE2_1" arrivalPos="310.57" arrivalSpeed="13.36" duration="153.00" routeLength="604.61" waitingTime="99.00" waitingCount="1" stopTime="0.00" timeLoss="108.89" rerouteNo="0" devices="tripinfo_NS_12 emissions_NS_12" vType="typeCar" speedFactor="1.01" vaporized="">
        <emissions CO_abs="18791.098203" CO2_abs="432014.912531" HC_abs="95.394148" PMx_abs="9.296576" NOx_abs="186.890932" fuel_abs="137798.723162" electricity_abs="0"/>
    </tripinfo>
    <tripinfo id="NS_13" depart="3.00" departLane="NS1_0" departPos="5.10" departSpeed="0.00" departDelay="1.00" arrival="154.00" arrivalLane="EW2_0" arrivalPos="267.19" arrivalSpeed="10.57" duration="151.00" routeLength="550.87" waitingTime="93.00" waitingCount="1" stopTime="0.00" timeLoss="101.91" rerouteNo="0" devices="tripinfo_NS_13 emissions_NS_13" vType="typeCar" speedFactor="0.83" vaporized="">
        <emissions CO_abs="17665.960301" CO2_abs="390885.337700" HC_abs="89.516638" PMx_abs="8.295031" NOx_abs="169.153989" fuel_abs="124680.268805" electricity_abs="0"/>
    </tripinfo>
    <tripinfo id="NS_15" depart="9.00" departLane="NS1_0" departPos="5.10" departSpeed="0.00" departDelay="1.00" arrival="154.00" arrivalLane="EW2_1" arrivalPos="267.19" arrivalSpeed="13.85" duration="145.00" routeLength="550.87" waitingTime="91.00" waitingCount="1" stopTime="0.00" timeLoss="105.34" rerouteNo="0" devices="tripinfo_NS_15 emissions_NS_15" vType="typeCar" speedFactor="1.03" vaporized="">
        <emissions CO_abs="17717.315336" CO2_abs="406207.997323" HC_abs="90.079513" PMx_abs="8.833020" NOx_abs="176.868252" fuel_abs="129567.065025" electricity_abs="0"/>
    </tripinfo>
    <tripinfo id="NS_14" depart="6.00" departLane="NS1_0" departPos="5.10" departSpeed="0.00" departDelay="1.00" arrival="157.00" arrivalLane="NS2_0" arrivalPos="287.99" arrivalSpeed="11.22" duration="151.00" routeLength="583.45" waitingTime="91.00" waitingCount="1" stopTime="0.00" timeLoss="101.95" rerouteNo="0" devices="tripinfo_NS_14 emissions_NS_14" vType="typeCar" speedFactor="0.86" vaporized="">
        <emissions CO_abs="17487.257018" CO2_abs="395699.300149" HC_abs="88.803749" PMx_abs="8.379741" NOx_abs="171.023918" fuel_abs="126215.547596" electricity_abs="0"/>
    </tripinfo>
    <tripinfo id="NS_17" depart="15.00" departLane="NS1_0" departPos="5.10" departSpeed="0.00" departDelay="1.00" arrival="157.00" arrivalLane="WE2_0" arrivalPos="310.57" arrivalSpeed="12.18" duration="142.00" routeLength="604.61" waitingTime="85.00" waitingCount="1" stopTime="0.00" timeLoss="94.80" rerouteNo="0" devices="tripinfo_NS_17 emissions_NS_17" vType="typeCar" speedFactor="0.94" vaporized="">
        <emissions CO_abs="16345.355396" CO2_abs="385636.582674" HC_abs="83.257613" PMx_abs="8.071165" NOx_abs="165.536147" fuel_abs="123005.546569" electricity_abs="0"/>
    </tripinfo>